User requirement: do a counterflow flame simulation using OpenFOAM reactingFoam solver, employing a compressible flow solver for detailed combustion modeling. Define the computational domain as a 2D rectangular region with a width of 0.02 meters and a height of 0.02 meters. Use CH4, O2 and N2 as species. Include chemical kinetics using the reaction mechanism. velocity of fuel is 0.1 m/s and velocity of air is -0.1 m/s. Set the simulation runtime from 0 to 0.5 seconds with a write interval of 0.05 seconds and deltaT of 1e-6.
Refer to the following similar case file content to ensure the generated file aligns with the user requirement:
<similar_case_reference><index>
case name: counterFlowFlame2D_GRI
case domain: combustion
case category: laminar
case solver: reactingFoam
</index>


<directory_structure>
<dir>directory name: 0. File names in this directory: [N2, Ydefault, O2, H2O, U, CH4, CO2, alphat, p, T]</dir>
<dir>directory name: system. File names in this directory: [fvSolution, decomposeParDict, blockMeshDict, fvSchemes, controlDict]</dir>
<dir>directory name: constant. File names in this directory: [chemistryProperties, thermo.compressibleGasGRI, momentumTransport, physicalProperties, reactionsGRI, combustionProperties, dynamicMeshDict]</dir>
</directory_structure>


<tutorials>
<directory_begin>directory name: 0
<file_begin>file name: N2
<file_content>
FoamFile
{
    format      ascii;
    class       volScalarField;
    location    "0";
    object      N2;
}


dimensions      [0 0 0 0 0 0 0];

internalField   uniform 1;

boundaryField
{
    #includeEtc "caseDicts/setConstraintTypes"

    fuel
    {
        type            fixedValue;
        value           uniform 0.0;
    }
    air
    {
        type            fixedValue;
        value           uniform 0.77;
    }
    outlet
    {
        type            inletOutlet;
        inletValue      uniform 1;
        value           uniform 1;

    }
    frontAndBack
    {
        type            empty;
    }
}



</file_content>
</file_end>

<file_begin>file name: Ydefault
<file_content>
FoamFile
{
    format      ascii;
    class       volScalarField;
    location    "0";
    object      Ydefault;
}


dimensions      [0 0 0 0 0 0 0];

internalField   uniform 0.0;

boundaryField
{
    #includeEtc "caseDicts/setConstraintTypes"

    fuel
    {
        type            fixedValue;
        value           uniform 0.0;
    }
    air
    {
        type            fixedValue;
        value           uniform 0.0;
    }
    outlet
    {
        type            inletOutlet;
        inletValue      uniform 0.0;
        value           uniform 0.0;

    }
    frontAndBack
    {
        type            empty;
    }
}



</file_content>
</file_end>

<file_begin>file name: O2
<file_content>
FoamFile
{
    format      ascii;
    class       volScalarField;
    location    "0";
    object      O2;
}


dimensions      [0 0 0 0 0 0 0];

internalField   uniform 0;

boundaryField
{
    #includeEtc "caseDicts/setConstraintTypes"

    fuel
    {
        type            fixedValue;
        value           uniform 0.0;
    }
    air
    {
        type            fixedValue;
        value           uniform 0.23;
    }
    outlet
    {
        type            inletOutlet;
        inletValue      uniform 0;
        value           uniform 0;
    }
    frontAndBack
    {
        type            empty;
    }
}



</file_content>
</file_end>

<file_begin>file name: H2O
<file_content>
FoamFile
{
    format      ascii;
    class       volScalarField;
    location    "0";
    object      H2O;
}


dimensions      [0 0 0 0 0 0 0];

internalField   uniform 0;

boundaryField
{
    #includeEtc "caseDicts/setConstraintTypes"

    fuel
    {
        type            fixedValue;
        value           uniform 0;
    }
    air
    {
        type            fixedValue;
        value           uniform 0;
    }
    outlet
    {
        type            inletOutlet;
        inletValue      uniform 0;
        value           uniform 0;

    }
    frontAndBack
    {
        type            empty;
    }
}



</file_content>
</file_end>

<file_begin>file name: U
<file_content>
FoamFile
{
    format      ascii;
    class       volVectorField;
    location    "0";
    object      U;
}


dimensions      [0 1 -1 0 0 0 0];

internalField   uniform (0 0 0);

boundaryField
{
    #includeEtc "caseDicts/setConstraintTypes"

    fuel
    {
        type            fixedValue;
        value           uniform (0.1 0 0);
    }
    air
    {
        type            fixedValue;
        value           uniform (-0.1 0 0);
    }
    outlet
    {
        type            pressureInletOutletVelocity;
        value           $internalField;
    }
    frontAndBack
    {
        type            empty;
    }
}



</file_content>
</file_end>

<file_begin>file name: CH4
<file_content>
FoamFile
{
    format      ascii;
    class       volScalarField;
    location    "0";
    object      CH4;
}


dimensions      [0 0 0 0 0 0 0];

internalField   uniform 0.0;

boundaryField
{
    #includeEtc "caseDicts/setConstraintTypes"

    fuel
    {
        type            fixedValue;
        value           uniform 1.0;
    }
    air
    {
        type            fixedValue;
        value           uniform 0.0;
    }
    outlet
    {
        type            inletOutlet;
        inletValue      uniform 0.0;
        value           uniform 0.0;

    }
    frontAndBack
    {
        type            empty;
    }
}



</file_content>
</file_end>

<file_begin>file name: CO2
<file_content>
FoamFile
{
    format      ascii;
    class       volScalarField;
    location    "0";
    object      CO2;
}


dimensions      [0 0 0 0 0 0 0];

internalField   uniform 0;

boundaryField
{
    #includeEtc "caseDicts/setConstraintTypes"

    fuel
    {
        type            fixedValue;
        value           uniform 0;
    }
    air
    {
        type            fixedValue;
        value           uniform 0;
    }
    outlet
    {
        type            inletOutlet;
        inletValue      uniform 0;
        value           uniform 0;

    }
    frontAndBack
    {
        type            empty;
    }
}



</file_content>
</file_end>

<file_begin>file name: alphat
<file_content>
FoamFile
{
    format      ascii;
    class       volScalarField;
    location    "0";
    object      alphat;
}


dimensions      [1 -1 -1 0 0 0 0];

internalField   uniform 0;

boundaryField
{
    #includeEtc "caseDicts/setConstraintTypes"

    fuel
    {
        type            fixedValue;
        value           uniform 0;
    }
    air
    {
        type            fixedValue;
        value           uniform 0;
    }
    outlet
    {
        type            zeroGradient;
    }
    frontAndBack
    {
        type            empty;
    }
}



</file_content>
</file_end>

<file_begin>file name: p
<file_content>
FoamFile
{
    format      ascii;
    class       volScalarField;
    location    "0";
    object      p;
}


dimensions      [1 -1 -2 0 0 0 0];

internalField   uniform 1e5;

boundaryField
{
    #includeEtc "caseDicts/setConstraintTypes"

    fuel
    {
        type            zeroGradient;
    }
    air
    {
        type            zeroGradient;
    }
    outlet
    {
        type            totalPressure;
        p0              $internalField;
    }
    frontAndBack
    {
        type            empty;
    }
}



</file_content>
</file_end>

<file_begin>file name: T
<file_content>
FoamFile
{
    format      ascii;
    class       volScalarField;
    location    "0";
    object      T;
}


dimensions      [0 0 0 1 0 0 0];

internalField   uniform 2000;

boundaryField
{
    #includeEtc "caseDicts/setConstraintTypes"

    fuel
    {
        type            fixedValue;
        value           uniform 293;
    }
    air
    {
        type            fixedValue;
        value           uniform 293;
    }
    outlet
    {
        type            inletOutlet;
        inletValue      uniform 293;
        value           uniform 293;
    }
    frontAndBack
    {
        type            empty;
    }
}



</file_content>
</file_end>

</directory_end>

<directory_begin>directory name: system
<file_begin>file name: fvSolution
<file_content>
FoamFile
{
    format      ascii;
    class       dictionary;
    location    "system";
    object      fvSolution;
}


solvers
{
    "rho.*"
    {
        solver          diagonal;
    }

    p
    {
        solver           PCG;
        preconditioner   DIC;
        tolerance        1e-6;
        relTol           0.1;
    }

    pFinal
    {
        $p;
        tolerance        1e-6;
        relTol           0.0;
    }

    "(U|h|k|epsilon)"
    {
        solver          PBiCGStab;
        preconditioner  DILU;
        tolerance       1e-6;
        relTol          0.1;
    }

    "(U|h|k|epsilon)Final"
    {
        $U;
        relTol          0;
    }

    "Yi.*"
    {
        $hFinal;
    }
}

PIMPLE
{
    momentumPredictor no;
    nOuterCorrectors  1;
    nCorrectors     2;
    nNonOrthogonalCorrectors 0;
}



</file_content>
</file_end>

<file_begin>file name: decomposeParDict
<file_content>
FoamFile
{
    format      ascii;
    class       dictionary;
    note        "mesh decomposition control dictionary";
    object      decomposeParDict;
}


numberOfSubdomains  12;

decomposer      hierarchical;
distributor     zoltan;
libs            ("libzoltanDecomp.so");

hierarchicalCoeffs
{
    n           (6 2 1);
    order       xyz;
}

zoltanCoeffs
{
    lb_method   rcb;
}



</file_content>
</file_end>

<file_begin>file name: blockMeshDict
<file_content>
FoamFile
{
    format      ascii;
    class       dictionary;
    object      blockMeshDict;
}


convertToMeters 1;

vertices
(
    (0.0  -0.01 -0.01)
    (0.02 -0.01 -0.01)
    (0.02  0.01 -0.01)
    (0.0   0.01 -0.01)
    (0.0  -0.01  0.01)
    (0.02 -0.01  0.01)
    (0.02  0.01  0.01)
    (0.0   0.01  0.01)
);

blocks
(
    hex (0 1 2 3 4 5 6 7) (100 40 1) simpleGrading (1 1 1)
);

boundary
(
    fuel
    {
        type patch;
        faces
        (
            (0 4 7 3)
        );
    }
    air
    {
        type patch;
        faces
        (
            (1 2 6 5)
        );
    }
    outlet
    {
        type patch;
        faces
        (
            (0 1 5 4)
            (7 6 2 3)
        );
    }
    frontAndBack
    {
        type empty;
        faces
        (
            (4 5 6 7)
            (0 3 2 1)
        );
    }

    internal
    {
        type internal;
        faces ();
    }
);



</file_content>
</file_end>

<file_begin>file name: fvSchemes
<file_content>
FoamFile
{
    format      ascii;
    class       dictionary;
    location    "system";
    object      fvSchemes;
}


ddtSchemes
{
    default         Euler;
}

gradSchemes
{
    default         Gauss linear;
}

divSchemes
{
    default         none;

    div(phi,U)      Gauss limitedLinearV 1;
    div(phi,Yi_h)   Gauss limitedLinear 1;
    div(phi,K)      Gauss limitedLinear 1;
    div(phid,p)     Gauss limitedLinear 1;
    div(phi,epsilon) Gauss limitedLinear 1;
    div(phi,k) Gauss limitedLinear 1;
    div(((rho*nuEff)*dev2(T(grad(U))))) Gauss linear;
}

laplacianSchemes
{
    default         Gauss linear orthogonal;
}

interpolationSchemes
{
    default         linear;
}

snGradSchemes
{
    default         orthogonal;
}



</file_content>
</file_end>

<file_begin>file name: controlDict
<file_content>
FoamFile
{
    format      ascii;
    class       dictionary;
    location    "system";
    object      controlDict;
}


application     reactingFoam;

startFrom       startTime;

startTime       0;

stopAt          endTime;

endTime         0.5;

deltaT          1e-6;

writeControl    adjustableRunTime;

writeInterval   0.05;

purgeWrite      0;

writeFormat     ascii;

writePrecision  6;

writeCompression off;

timeFormat      general;

timePrecision   6;

runTimeModifiable true;

adjustTimeStep  yes;

maxCo           0.4;

functions
{
    #includeFunc Qdot
}



</file_content>
</file_end>

</directory_end>

<directory_begin>directory name: constant
<file_begin>file name: chemistryProperties
<file_content>
FoamFile
{
    version         2;
    format          ascii;
    class           dictionary;
    location        "constant";
    object          chemistryProperties;
}

chemistryType
{
    solver          ode;
}

chemistry       on;

loadBalancing   on;

initialChemicalTimeStep 1e-07;

odeCoeffs
{
    solver          seulex;
    absTol          1e-8;
    relTol          0.1;
}

#include "reactionsGRI"


</file_content>
</file_end>

<file_begin>file name: thermo.compressibleGasGRI
<file_content>species
53
(
CH4
CH2O
CH3O
H
O2
H2
O
OH
H2O
HO2
H2O2
C
CH
CH2
CH2(S)
CH3
CO
CO2
HCO
CH2OH
CH3OH
C2H
C2H2
C2H3
C2H4
C2H5
C2H6
HCCO
CH2CO
HCCOH
N
NH
NH2
NH3
NNH
NO
NO2
N2O
HNO
CN
HCN
H2CN
HCNN
HCNO
HOCN
HNCO
NCO
N2
AR
C3H7
C3H8
CH2CHO
CH3CHO
)
;

OH
{
    specie
    {
        molWeight       17.0074;
    }
    thermodynamics
    {
        Tlow            200;
        Thigh           3500;
        Tcommon         1000;
        highCpCoeffs    ( 3.09289 0.00054843 1.26505e-07 -8.79462e-11 1.17412e-14 3858.66 4.4767 );
        lowCpCoeffs     ( 3.99202 -0.00240132 4.61794e-06 -3.88113e-09 1.36411e-12 3615.08 -0.103925 );
    }
    transport
    {
        As              1.67212e-06;
        Ts              170.672;
    }
    elements
    {
        O               1;
        H               1;
    }
}
CN
{
    specie
    {
        molWeight       26.0179;
    }
    thermodynamics
    {
        Tlow            200;
        Thigh           6000;
        Tcommon         1000;
        highCpCoeffs    ( 3.74598 4.34508e-05 2.9706e-07 -6.86518e-11 4.41342e-15 51536.2 2.78676 );
        lowCpCoeffs     ( 3.61294 -0.000955513 2.1443e-06 -3.15163e-10 -4.64304e-13 51708.3 3.9805 );
    }
    transport
    {
        As              1.67212e-06;
        Ts              170.672;
    }
    elements
    {
        C               1;
        N               1;
    }
}
C2H3
{
    specie
    {
        molWeight       27.0462;
    }
    thermodynamics
    {
        Tlow            200;
        Thigh           3500;
        Tcommon         1000;
        highCpCoeffs    ( 3.01672 0.0103302 -4.68082e-06 1.01763e-09 -8.62607e-14 34612.9 7.78732 );
        lowCpCoeffs     ( 3.21247 0.00151479 2.59209e-05 -3.57658e-08 1.47151e-11 34859.8 8.51054 );
    }
    transport
    {
        As              1.67212e-06;
        Ts              170.672;
    }
    elements
    {
        C               2;
        H               3;
    }
}
N2
{
    specie
    {
        molWeight       28.0134;
    }
    thermodynamics
    {
        Tlow            200;
        Thigh           5000;
        Tcommon         1000;
        highCpCoeffs    ( 2.92664 0.00148798 -5.68476e-07 1.0097e-10 -6.75335e-15 -922.798 5.98053 );
        lowCpCoeffs     ( 3.29868 0.00140824 -3.96322e-06 5.64152e-09 -2.44485e-12 -1020.9 3.95037 );
    }
    transport
    {
        As              1.67212e-06;
        Ts              170.672;
    }
    elements
    {
        N               2;
    }
}
HOCN
{
    specie
    {
        molWeight       43.0252;
    }
    thermodynamics
    {
        Tlow            200;
        Thigh           5000;
        Tcommon         1368;
        highCpCoeffs    ( 5.89785 0.00316789 -1.11801e-06 1.77243e-10 -1.04339e-14 -3706.53 -6.18168 );
        lowCpCoeffs     ( 3.78605 0.00688668 -3.21488e-06 5.17196e-10 1.19361e-14 -2826.98 5.63292 );
    }
    transport
    {
        As              1.67212e-06;
        Ts              170.672;
    }
    elements
    {
        H               1;
        N               1;
        C               1;
        O               1;
    }
}
N
{
    specie
    {
        molWeight       14.0067;
    }
    thermodynamics
    {
        Tlow            200;
        Thigh           6000;
        Tcommon         1000;
        highCpCoeffs    ( 2.41594 0.000174891 -1.19024e-07 3.02262e-11 -2.0361e-15 56133.8 4.64961 );
        lowCpCoeffs     ( 2.5 0 0 0 0 56104.6 4.19391 );
    }
    transport
    {
        As              1.67212e-06;
        Ts              170.672;
    }
    elements
    {
        N               1;
    }
}
C2H
{
    specie
    {
        molWeight       25.0303;
    }
    thermodynamics
    {
        Tlow            200;
        Thigh           3500;
        Tcommon         1000;
        highCpCoeffs    ( 3.16781 0.00475222 -1.83787e-06 3.0419e-10 -1.77233e-14 67121.1 6.63589 );
        lowCpCoeffs     ( 2.88966 0.01341 -2.8477e-05 2.94791e-08 -1.09332e-11 66839.4 6.22296 );
    }
    transport
    {
        As              1.67212e-06;
        Ts              170.672;
    }
    elements
    {
        C               2;
        H               1;
    }
}
HNO
{
    specie
    {
        molWeight       31.0141;
    }
    thermodynamics
    {
        Tlow            200;
        Thigh           6000;
        Tcommon         1000;
        highCpCoeffs    ( 2.97925 0.00349441 -7.85498e-07 5.74796e-11 -1.93359e-16 11750.6 8.60637 );
        lowCpCoeffs     ( 4.53349 -0.00566962 1.84732e-05 -1.71371e-08 5.54546e-12 11548.3 1.74984 );
    }
    transport
    {
        As              1.67212e-06;
        Ts              170.672;
    }
    elements
    {
        H               1;
        N               1;
        O               1;
    }
}
CH2CO
{
    specie
    {
        molWeight       42.0376;
    }
    thermodynamics
    {
        Tlow            200;
        Thigh           3500;
        Tcommon         1000;
        highCpCoeffs    ( 4.5113 0.0090036 -4.1694e-06 9.23346e-10 -7.94838e-14 -7551.05 0.632247 );
        lowCpCoeffs     ( 2.13584 0.0181189 -1.73947e-05 9.34398e-09 -2.01458e-12 -7042.92 12.2156 );
    }
    transport
    {
        As              1.67212e-06;
        Ts              170.672;
    }
    elements
    {
        C               2;
        H               2;
        O               1;
    }
}
CH3
{
    specie
    {
        molWeight       15.0351;
    }
    thermodynamics
    {
        Tlow            200;
        Thigh           3500;
        Tcommon         1000;
        highCpCoeffs    ( 2.28572 0.0072399 -2.98714e-06 5.95685e-10 -4.67154e-14 16775.6 8.48007 );
        lowCpCoeffs     ( 3.67359 0.00201095 5.73022e-06 -6.87117e-09 2.54386e-12 16445 1.60456 );
    }
    transport
    {
        As              1.67212e-06;
        Ts              170.672;
    }
    elements
    {
        C               1;
        H               3;
    }
}
C2H5
{
    specie
    {
        molWeight       29.0622;
    }
    thermodynamics
    {
        Tlow            200;
        Thigh           3500;
        Tcommon         1000;
        highCpCoeffs    ( 1.95466 0.0173973 -7.98207e-06 1.75218e-09 -1.49642e-13 12857.5 13.4624 );
        lowCpCoeffs     ( 4.30647 -0.00418659 4.97143e-05 -5.99127e-08 2.30509e-11 12841.6 4.70721 );
    }
    transport
    {
        As              1.67212e-06;
        Ts              170.672;
    }
    elements
    {
        C               2;
        H               5;
    }
}
C2H4
{
    specie
    {
        molWeight       28.0542;
    }
    thermodynamics
    {
        Tlow            200;
        Thigh           3500;
        Tcommon         1000;
        highCpCoeffs    ( 2.03611 0.0146454 -6.71078e-06 1.47223e-09 -1.25706e-13 4939.89 10.3054 );
        lowCpCoeffs     ( 3.9592 -0.00757052 5.7099e-05 -6.91589e-08 2.69884e-11 5089.78 4.09733 );
    }
    transport
    {
        As              1.67212e-06;
        Ts              170.672;
    }
    elements
    {
        C               2;
        H               4;
    }
}
C3H8
{
    specie
    {
        molWeight       44.0972;
    }
    thermodynamics
    {
        Tlow            200;
        Thigh           5000;
        Tcommon         1000;
        highCpCoeffs    ( 7.53414 0.0188722 -6.27185e-06 9.14756e-10 -4.78381e-14 -16467.5 -17.8923 );
        lowCpCoeffs     ( 0.933554 0.0264246 6.10597e-06 -2.19775e-08 9.51493e-12 -13958.5 19.2017 );
    }
    transport
    {
        As              1.67212e-06;
        Ts              170.672;
    }
    elements
    {
        C               3;
        H               8;
    }
}
HCN
{
    specie
    {
        molWeight       27.0258;
    }
    thermodynamics
    {
        Tlow            200;
        Thigh           6000;
        Tcommon         1000;
        highCpCoeffs    ( 3.80224 0.00314642 -1.06322e-06 1.66198e-10 -9.79976e-15 14407.3 1.57546 );
        lowCpCoeffs     ( 2.25899 0.0100512 -1.33518e-05 1.00923e-08 -3.0089e-12 14712.6 8.91644 );
    }
    transport
    {
        As              1.67212e-06;
        Ts              170.672;
    }
    elements
    {
        H               1;
        C               1;
        N               1;
    }
}
C2H6
{
    specie
    {
        molWeight       30.0701;
    }
    thermodynamics
    {
        Tlow            200;
        Thigh           3500;
        Tcommon         1000;
        highCpCoeffs    ( 1.07188 0.0216853 -1.00256e-05 2.21412e-09 -1.90003e-13 -11426.4 15.1156 );
        lowCpCoeffs     ( 4.29142 -0.00550154 5.99438e-05 -7.08466e-08 2.68686e-11 -11522.2 2.66682 );
    }
    transport
    {
        As              1.67212e-06;
        Ts              170.672;
    }
    elements
    {
        C               2;
        H               6;
    }
}
NH3
{
    specie
    {
        molWeight       17.0306;
    }
    thermodynamics
    {
        Tlow            200;
        Thigh           6000;
        Tcommon         1000;
        highCpCoeffs    ( 2.63445 0.00566626 -1.72787e-06 2.38672e-10 -1.25788e-14 -6544.7 6.56629 );
        lowCpCoeffs     ( 4.28603 -0.00466052 2.17185e-05 -2.28089e-08 8.2638e-12 -6741.73 -0.625373 );
    }
    transport
    {
        As              1.67212e-06;
        Ts              170.672;
    }
    elements
    {
        N               1;
        H               3;
    }
}
CO2
{
    specie
    {
        molWeight       44.01;
    }
    thermodynamics
    {
        Tlow            200;
        Thigh           3500;
        Tcommon         1000;
        highCpCoeffs    ( 3.85746 0.00441437 -2.21481e-06 5.2349e-10 -4.72084e-14 -48759.2 2.27164 );
        lowCpCoeffs     ( 2.35677 0.0089846 -7.12356e-06 2.45919e-09 -1.437e-13 -48372 9.90105 );
    }
    transport
    {
        As              1.67212e-06;
        Ts              170.672;
    }
    elements
    {
        C               1;
        O               2;
    }
}
C2H2
{
    specie
    {
        molWeight       26.0382;
    }
    thermodynamics
    {
        Tlow            200;
        Thigh           3500;
        Tcommon         1000;
        highCpCoeffs    ( 4.14757 0.00596167 -2.37295e-06 4.67412e-10 -3.61235e-14 25936 -1.23028 );
        lowCpCoeffs     ( 0.808681 0.0233616 -3.55172e-05 2.80152e-08 -8.50073e-12 26429 13.9397 );
    }
    transport
    {
        As              1.67212e-06;
        Ts              170.672;
    }
    elements
    {
        C               2;
        H               2;
    }
}
CH2OH
{
    specie
    {
        molWeight       31.0345;
    }
    thermodynamics
    {
        Tlow            200;
        Thigh           3500;
        Tcommon         1000;
        highCpCoeffs    ( 3.69267 0.00864577 -3.75101e-06 7.87235e-10 -6.48554e-14 -3242.51 5.81043 );
        lowCpCoeffs     ( 3.86389 0.00559672 5.93272e-06 -1.04532e-08 4.36967e-12 -3193.91 5.47302 );
    }
    transport
    {
        As              1.67212e-06;
        Ts              170.672;
    }
    elements
    {
        C               1;
        H               3;
        O               1;
    }
}
H2CN
{
    specie
    {
        molWeight       28.0338;
    }
    thermodynamics
    {
        Tlow            200;
        Thigh           4000;
        Tcommon         1000;
        highCpCoeffs    ( 5.2097 0.00296929 -2.85559e-07 -1.63555e-10 3.04326e-14 27677.1 -4.44448 );
        lowCpCoeffs     ( 2.85166 0.00569523 1.07114e-06 -1.62261e-09 -2.35111e-13 28637.8 8.99275 );
    }
    transport
    {
        As              1.67212e-06;
        Ts              170.672;
    }
    elements
    {
        H               2;
        C               1;
        N               1;
    }
}
HCCOH
{
    specie
    {
        molWeight       42.0376;
    }
    thermodynamics
    {
        Tlow            200;
        Thigh           5000;
        Tcommon         1000;
        highCpCoeffs    ( 5.92383 0.00679236 -2.56586e-06 4.49878e-10 -2.99401e-14 7264.63 -7.60177 );
        lowCpCoeffs     ( 1.24237 0.0310722 -5.08669e-05 4.31371e-08 -1.40146e-11 8031.61 13.8743 );
    }
    transport
    {
        As              1.67212e-06;
        Ts              170.672;
    }
    elements
    {
        C               2;
        O               1;
        H               2;
    }
}
H2O2
{
    specie
    {
        molWeight       34.0147;
    }
    thermodynamics
    {
        Tlow            200;
        Thigh           3500;
        Tcommon         1000;
        highCpCoeffs    ( 4.165 0.00490832 -1.90139e-06 3.71186e-10 -2.87908e-14 -17861.8 2.91616 );
        lowCpCoeffs     ( 4.27611 -0.000542822 1.67336e-05 -2.15771e-08 8.62454e-12 -17702.6 3.43505 );
    }
    transport
    {
        As              1.67212e-06;
        Ts              170.672;
    }
    elements
    {
        H               2;
        O               2;
    }
}
HCO
{
    specie
    {
        molWeight       29.0185;
    }
    thermodynamics
    {
        Tlow            200;
        Thigh           3500;
        Tcommon         1000;
        highCpCoeffs    ( 2.77217 0.00495696 -2.48446e-06 5.89162e-10 -5.33509e-14 4011.92 9.79834 );
        lowCpCoeffs     ( 4.22119 -0.00324393 1.37799e-05 -1.33144e-08 4.33769e-12 3839.56 3.39437 );
    }
    transport
    {
        As              1.67212e-06;
        Ts              170.672;
    }
    elements
    {
        H               1;
        C               1;
        O               1;
    }
}
NNH
{
    specie
    {
        molWeight       29.0214;
    }
    thermodynamics
    {
        Tlow            200;
        Thigh           6000;
        Tcommon         1000;
        highCpCoeffs    ( 3.76675 0.00289151 -1.04166e-06 1.68426e-10 -1.00919e-14 28650.7 4.47051 );
        lowCpCoeffs     ( 4.34469 -0.00484971 2.00595e-05 -2.17265e-08 7.94695e-12 28792 2.97794 );
    }
    transport
    {
        As              1.67212e-06;
        Ts              170.672;
    }
    elements
    {
        N               2;
        H               1;
    }
}
N2O
{
    specie
    {
        molWeight       44.0128;
    }
    thermodynamics
    {
        Tlow            200;
        Thigh           6000;
        Tcommon         1000;
        highCpCoeffs    ( 4.82307 0.00262703 -9.58509e-07 1.60007e-10 -9.77523e-15 8073.4 -2.20172 );
        lowCpCoeffs     ( 2.25715 0.0113047 -1.36713e-05 9.68198e-09 -2.93072e-12 8741.77 10.758 );
    }
    transport
    {
        As              1.67212e-06;
        Ts              170.672;
    }
    elements
    {
        N               2;
        O               1;
    }
}
CH2(S)
{
    specie
    {
        molWeight       14.0271;
    }
    thermodynamics
    {
        Tlow            200;
        Thigh           3500;
        Tcommon         1000;
        highCpCoeffs    ( 2.29204 0.00465589 -2.01192e-06 4.17906e-10 -3.39716e-14 50926 8.6265 );
        lowCpCoeffs     ( 4.1986 -0.00236661 8.23296e-06 -6.68816e-09 1.94315e-12 50496.8 -0.769119 );
    }
    transport
    {
        As              1.67212e-06;
        Ts              170.672;
    }
    elements
    {
        C               1;
        H               2;
    }
}
O2
{
    specie
    {
        molWeight       31.9988;
    }
    thermodynamics
    {
        Tlow            200;
        Thigh           3500;
        Tcommon         1000;
        highCpCoeffs    ( 3.28254 0.00148309 -7.57967e-07 2.09471e-10 -2.16718e-14 -1088.46 5.45323 );
        lowCpCoeffs     ( 3.78246 -0.00299673 9.8473e-06 -9.6813e-09 3.24373e-12 -1063.94 3.65768 );
    }
    transport
    {
        As              1.67212e-06;
        Ts              170.672;
    }
    elements
    {
        O               2;
    }
}
CH2CHO
{
    specie
    {
        molWeight       43.0456;
    }
    thermodynamics
    {
        Tlow            200;
        Thigh           5000;
        Tcommon         1000;
        highCpCoeffs    ( 5.97567 0.00813059 -2.74362e-06 4.0703e-10 -2.17602e-14 490.322 -5.04525 );
        lowCpCoeffs     ( 3.40906 0.0107386 1.89149e-06 -7.15858e-09 2.86738e-12 1521.48 9.55829 );
    }
    transport
    {
        As              1.67212e-06;
        Ts              170.672;
    }
    elements
    {
        O               1;
        H               3;
        C               2;
    }
}
HNCO
{
    specie
    {
        molWeight       43.0252;
    }
    thermodynamics
    {
        Tlow            200;
        Thigh           5000;
        Tcommon         1478;
        highCpCoeffs    ( 6.22395 0.00317864 -1.09379e-06 1.70735e-10 -9.95022e-15 -16659.9 -8.38225 );
        lowCpCoeffs     ( 3.63096 0.00730282 -2.2805e-06 -6.61271e-10 3.62236e-13 -15587.4 6.19458 );
    }
    transport
    {
        As              1.67212e-06;
        Ts              170.672;
    }
    elements
    {
        H               1;
        N               1;
        C               1;
        O               1;
    }
}
HCCO
{
    specie
    {
        molWeight       41.0297;
    }
    thermodynamics
    {
        Tlow            200;
        Thigh           4000;
        Tcommon         1000;
        highCpCoeffs    ( 5.62821 0.00408534 -1.59345e-06 2.86261e-10 -1.94078e-14 19327.2 -3.93026 );
        lowCpCoeffs     ( 2.25172 0.017655 -2.37291e-05 1.72758e-08 -5.06648e-12 20059.4 12.4904 );
    }
    transport
    {
        As              1.67212e-06;
        Ts              170.672;
    }
    elements
    {
        H               1;
        C               2;
        O               1;
    }
}
H2
{
    specie
    {